Title Card Required                                                     
Freq      RwB97XD                                                     6-311++G(d,p)       
Number of atoms                            I               18
Info1-9                                    I   N=           9
          25          25           0           0           0         101
           6          18        -802
Charge                                     I                0
Multiplicity                               I                1
Number of electrons                        I               72
Number of alpha electrons                  I               36
Number of beta electrons                   I               36
Number of basis functions                  I              276
Number of independent functions            I              275
Number of point charges in /Mol/           I                0
Number of translation vectors              I                0
Atomic numbers                             I   N=          18
           6           6           6           6           6           6
           1           1           1           1           1           6
           8           8           6           1           1           1
Nuclear charges                            R   N=          18
  6.00000000E+00  6.00000000E+00  6.00000000E+00  6.00000000E+00  6.00000000E+00
  6.00000000E+00  1.00000000E+00  1.00000000E+00  1.00000000E+00  1.00000000E+00
  1.00000000E+00  6.00000000E+00  8.00000000E+00  8.00000000E+00  6.00000000E+00
  1.00000000E+00  1.00000000E+00  1.00000000E+00
Current cartesian coordinates              R   N=          54
 -5.63727793E+00 -5.24151448E-01 -5.66917840E-06 -4.01276163E+00 -2.59018147E+00
 -5.66917840E-06 -1.41518378E+00 -2.22121244E+00 -3.77945227E-06 -4.38386227E-01
  2.26651863E-01 -1.88972613E-06 -2.07071465E+00  2.29474547E+00 -1.88972613E-06
 -4.66483053E+00  1.91821753E+00 -1.88972613E-06 -7.66528288E+00 -8.18748414E-01
 -7.55890453E-06 -4.77295499E+00 -4.49239869E+00 -7.55890453E-06 -1.37802609E-01
 -3.81903258E+00 -3.77945227E-06 -1.27308393E+00  4.18045593E+00  0.00000000E+00
 -5.93195616E+00  3.52767271E+00 -1.88972613E-06  2.33099419E+00  7.39582117E-01
  1.88972613E-06  3.25281016E+00  2.82242881E+00  1.88972613E-06  3.71402239E+00
 -1.38297906E+00  3.77945227E-06  6.38906768E+00 -1.03787917E+00  7.55890453E-06
  7.19377543E+00 -2.92956495E+00  1.51178091E-05  6.98360954E+00  6.89750039E-04
 -1.67936182E+00  6.98360387E+00  7.01088395E-04  1.67937316E+00
Force Field                                I                0
Int Atom Types                             I   N=          18
           0           0           0           0           0           0
           0           0           0           0           0           0
           0           0           0           0           0           0
MM charges                                 R   N=          18
  0.00000000E+00  0.00000000E+00  0.00000000E+00  0.00000000E+00  0.00000000E+00
  0.00000000E+00  0.00000000E+00  0.00000000E+00  0.00000000E+00  0.00000000E+00
  0.00000000E+00  0.00000000E+00  0.00000000E+00  0.00000000E+00  0.00000000E+00
  0.00000000E+00  0.00000000E+00  0.00000000E+00
Integer atomic weights                     I   N=          18
          12          12          12          12          12          12
           1           1           1           1           1          12
          16          16          12           1           1           1
Real atomic weights                        R   N=          18
  1.20000000E+01  1.20000000E+01  1.20000000E+01  1.20000000E+01  1.20000000E+01
  1.20000000E+01  1.00782504E+00  1.00782504E+00  1.00782504E+00  1.00782504E+00
  1.00782504E+00  1.20000000E+01  1.59949146E+01  1.59949146E+01  1.20000000E+01
  1.00782504E+00  1.00782504E+00  1.00782504E+00
Atom fragment info                         I   N=          18
           0           0           0           0           0           0
           0           0           0           0           0           0
           0           0           0           0           0           0
Atom residue num                           I   N=          18
           0           0           0           0           0           0
           0           0           0           0           0           0
           0           0           0           0           0           0
Nuclear spins                              I   N=          18
           0           0           0           0           0           0
           1           1           1           1           1           0
           0           0           0           1           1           1
Nuclear ZEff                               R   N=          18
 -3.60000000E+00 -3.60000000E+00 -3.60000000E+00 -3.60000000E+00 -3.60000000E+00
 -3.60000000E+00 -1.00000000E+00 -1.00000000E+00 -1.00000000E+00 -1.00000000E+00
 -1.00000000E+00 -3.60000000E+00 -5.60000000E+00 -5.60000000E+00 -3.60000000E+00
 -1.00000000E+00 -1.00000000E+00 -1.00000000E+00
Nuclear ZNuc                               R   N=          18
  6.00000000E+00  6.00000000E+00  6.00000000E+00  6.00000000E+00  6.00000000E+00
  6.00000000E+00  1.00000000E+00  1.00000000E+00  1.00000000E+00  1.00000000E+00
  1.00000000E+00  6.00000000E+00  8.00000000E+00  8.00000000E+00  6.00000000E+00
  1.00000000E+00  1.00000000E+00  1.00000000E+00
Nuclear QMom                               R   N=          18
  0.00000000E+00  0.00000000E+00  0.00000000E+00  0.00000000E+00  0.00000000E+00
  0.00000000E+00  0.00000000E+00  0.00000000E+00  0.00000000E+00  0.00000000E+00
  0.00000000E+00  0.00000000E+00  0.00000000E+00  0.00000000E+00  0.00000000E+00
  0.00000000E+00  0.00000000E+00  0.00000000E+00
Nuclear GFac                               R   N=          18
  0.00000000E+00  0.00000000E+00  0.00000000E+00  0.00000000E+00  0.00000000E+00
  0.00000000E+00  2.79284600E+00  2.79284600E+00  2.79284600E+00  2.79284600E+00
  2.79284600E+00  0.00000000E+00  0.00000000E+00  0.00000000E+00  0.00000000E+00
  2.79284600E+00  2.79284600E+00  2.79284600E+00
MicOpt                                     I   N=          18
          -1          -1          -1          -1          -1          -1
          -1          -1          -1          -1          -1          -1
          -1          -1          -1          -1          -1          -1
SymInf integers                            I   N=          26
           1           1           1           1           1           0
           0           0           0           0           0           0
           0           0           0           0           0           0
           0           0           0           0           0           0
           0           0
RotTr to input orientation                 R   N=          12
  1.00000000E+00  5.93773495E-08  0.00000000E+00 -5.93773495E-08  1.00000000E+00
  0.00000000E+00  0.00000000E+00  0.00000000E+00  1.00000000E+00  1.57477178E-07
  1.04984785E-07 -2.36215767E-07
Number of contracted shells                I              100
Number of primitive shells                 I              186
Pure/Cartesian d shells                    I                0
Pure/Cartesian f shells                    I                0
Highest angular momentum                   I                2
Largest degree of contraction              I                6
Shell types                                I   N=         100
           0          -1          -1          -1          -1          -2
           0          -1          -1          -1          -1          -2
           0          -1          -1          -1          -1          -2
           0          -1          -1          -1          -1          -2
           0          -1          -1          -1          -1          -2
           0          -1          -1          -1          -1          -2
           0           0           0           0           1           0
           0           0           0           1           0           0
           0           0           1           0           0           0
           0           1           0           0           0           0
           1           0          -1          -1          -1          -1
          -2           0          -1          -1          -1          -1
          -2           0          -1          -1          -1          -1
          -2           0          -1          -1          -1          -1
          -2           0           0           0           0           1
           0           0           0           0           1           0
           0           0           0           1
Number of primitives per shell             I   N=         100
           6           3           1           1           1           1
           6           3           1           1           1           1
           6           3           1           1           1           1
           6           3           1           1           1           1
           6           3           1           1           1           1
           6           3           1           1           1           1
           3           1           1           1           1           3
           1           1           1           1           3           1
           1           1           1           3           1           1
           1           1           3           1           1           1
           1           6           3           1           1           1
           1           6           3           1           1           1
           1           6           3           1           1           1
           1           6           3           1           1           1
           1           3           1           1           1           1
           3           1           1           1           1           3
           1           1           1           1
Shell to atom map                          I   N=         100
           1           1           1           1           1           1
           2           2           2           2           2           2
           3           3           3           3           3           3
           4           4           4           4           4           4
           5           5           5           5           5           5
           6           6           6           6           6           6
           7           7           7           7           7           8
           8           8           8           8           9           9
           9           9           9          10          10          10
          10          10          11          11          11          11
          11          12          12          12          12          12
          12          13          13          13          13          13
          13          14          14          14          14          14
          14          15          15          15          15          15
          15          16          16          16          16          16
          17          17          17          17          17          18
          18          18          18          18
Primitive exponents                        R   N=         186
  4.56324000E+03  6.82024000E+02  1.54973000E+02  4.44553000E+01  1.30290000E+01
  1.82773000E+00  2.09642000E+01  4.80331000E+00  1.45933000E+00  4.83456000E-01
  1.45585000E-01  4.38000000E-02  6.26000000E-01  4.56324000E+03  6.82024000E+02
  1.54973000E+02  4.44553000E+01  1.30290000E+01  1.82773000E+00  2.09642000E+01
  4.80331000E+00  1.45933000E+00  4.83456000E-01  1.45585000E-01  4.38000000E-02
  6.26000000E-01  4.56324000E+03  6.82024000E+02  1.54973000E+02  4.44553000E+01
  1.30290000E+01  1.82773000E+00  2.09642000E+01  4.80331000E+00  1.45933000E+00
  4.83456000E-01  1.45585000E-01  4.38000000E-02  6.26000000E-01  4.56324000E+03
  6.82024000E+02  1.54973000E+02  4.44553000E+01  1.30290000E+01  1.82773000E+00
  2.09642000E+01  4.80331000E+00  1.45933000E+00  4.83456000E-01  1.45585000E-01
  4.38000000E-02  6.26000000E-01  4.56324000E+03  6.82024000E+02  1.54973000E+02
  4.44553000E+01  1.30290000E+01  1.82773000E+00  2.09642000E+01  4.80331000E+00
  1.45933000E+00  4.83456000E-01  1.45585000E-01  4.38000000E-02  6.26000000E-01
  4.56324000E+03  6.82024000E+02  1.54973000E+02  4.44553000E+01  1.30290000E+01
  1.82773000E+00  2.09642000E+01  4.80331000E+00  1.45933000E+00  4.83456000E-01
  1.45585000E-01  4.38000000E-02  6.26000000E-01  3.38650000E+01  5.09479000E+00
  1.15879000E+00  3.25840000E-01  1.02741000E-01  3.60000000E-02  7.50000000E-01
  3.38650000E+01  5.09479000E+00  1.15879000E+00  3.25840000E-01  1.02741000E-01
  3.60000000E-02  7.50000000E-01  3.38650000E+01  5.09479000E+00  1.15879000E+00
  3.25840000E-01  1.02741000E-01  3.60000000E-02  7.50000000E-01  3.38650000E+01
  5.09479000E+00  1.15879000E+00  3.25840000E-01  1.02741000E-01  3.60000000E-02
  7.50000000E-01  3.38650000E+01  5.09479000E+00  1.15879000E+00  3.25840000E-01
  1.02741000E-01  3.60000000E-02  7.50000000E-01  4.56324000E+03  6.82024000E+02
  1.54973000E+02  4.44553000E+01  1.30290000E+01  1.82773000E+00  2.09642000E+01
  4.80331000E+00  1.45933000E+00  4.83456000E-01  1.45585000E-01  4.38000000E-02
  6.26000000E-01  8.58850000E+03  1.29723000E+03  2.99296000E+02  8.73771000E+01
  2.56789000E+01  3.74004000E+00  4.21175000E+01  9.62837000E+00  2.85332000E+00
  9.05661000E-01  2.55611000E-01  8.45000000E-02  1.29200000E+00  8.58850000E+03
  1.29723000E+03  2.99296000E+02  8.73771000E+01  2.56789000E+01  3.74004000E+00
  4.21175000E+01  9.62837000E+00  2.85332000E+00  9.05661000E-01  2.55611000E-01
  8.45000000E-02  1.29200000E+00  4.56324000E+03  6.82024000E+02  1.54973000E+02
  4.44553000E+01  1.30290000E+01  1.82773000E+00  2.09642000E+01  4.80331000E+00
  1.45933000E+00  4.83456000E-01  1.45585000E-01  4.38000000E-02  6.26000000E-01
  3.38650000E+01  5.09479000E+00  1.15879000E+00  3.25840000E-01  1.02741000E-01
  3.60000000E-02  7.50000000E-01  3.38650000E+01  5.09479000E+00  1.15879000E+00
  3.25840000E-01  1.02741000E-01  3.60000000E-02  7.50000000E-01  3.38650000E+01
  5.09479000E+00  1.15879000E+00  3.25840000E-01  1.02741000E-01  3.60000000E-02
  7.50000000E-01
Contraction coefficients                   R   N=         186
  1.96665025E-03  1.52306019E-02  7.61269097E-02  2.60801033E-01  6.16462078E-01
  2.21006028E-01  1.14660081E-01  9.19999648E-01 -3.03068213E-03  1.00000000E+00
  1.00000000E+00  1.00000000E+00  1.00000000E+00  1.96665025E-03  1.52306019E-02
  7.61269097E-02  2.60801033E-01  6.16462078E-01  2.21006028E-01  1.14660081E-01
  9.19999648E-01 -3.03068213E-03  1.00000000E+00  1.00000000E+00  1.00000000E+00
  1.00000000E+00  1.96665025E-03  1.52306019E-02  7.61269097E-02  2.60801033E-01
  6.16462078E-01  2.21006028E-01  1.14660081E-01  9.19999648E-01 -3.03068213E-03
  1.00000000E+00  1.00000000E+00  1.00000000E+00  1.00000000E+00  1.96665025E-03
  1.52306019E-02  7.61269097E-02  2.60801033E-01  6.16462078E-01  2.21006028E-01
  1.14660081E-01  9.19999648E-01 -3.03068213E-03  1.00000000E+00  1.00000000E+00
  1.00000000E+00  1.00000000E+00  1.96665025E-03  1.52306019E-02  7.61269097E-02
  2.60801033E-01  6.16462078E-01  2.21006028E-01  1.14660081E-01  9.19999648E-01
 -3.03068213E-03  1.00000000E+00  1.00000000E+00  1.00000000E+00  1.00000000E+00
  1.96665025E-03  1.52306019E-02  7.61269097E-02  2.60801033E-01  6.16462078E-01
  2.21006028E-01  1.14660081E-01  9.19999648E-01 -3.03068213E-03  1.00000000E+00
  1.00000000E+00  1.00000000E+00  1.00000000E+00  2.54938145E-02  1.90373109E-01
  8.52161486E-01  1.00000000E+00  1.00000000E+00  1.00000000E+00  1.00000000E+00
  2.54938145E-02  1.90373109E-01  8.52161486E-01  1.00000000E+00  1.00000000E+00
  1.00000000E+00  1.00000000E+00  2.54938145E-02  1.90373109E-01  8.52161486E-01
  1.00000000E+00  1.00000000E+00  1.00000000E+00  1.00000000E+00  2.54938145E-02
  1.90373109E-01  8.52161486E-01  1.00000000E+00  1.00000000E+00  1.00000000E+00
  1.00000000E+00  2.54938145E-02  1.90373109E-01  8.52161486E-01  1.00000000E+00
  1.00000000E+00  1.00000000E+00  1.00000000E+00  1.96665025E-03  1.52306019E-02
  7.61269097E-02  2.60801033E-01  6.16462078E-01  2.21006028E-01  1.14660081E-01
  9.19999648E-01 -3.03068213E-03  1.00000000E+00  1.00000000E+00  1.00000000E+00
  1.00000000E+00  1.89515008E-03  1.43859006E-02  7.07320031E-02  2.40001011E-01
  5.94797026E-01  2.80802012E-01  1.13889012E-01  9.20811101E-01 -3.27447036E-03
  1.00000000E+00  1.00000000E+00  1.00000000E+00  1.00000000E+00  1.89515008E-03
  1.43859006E-02  7.07320031E-02  2.40001011E-01  5.94797026E-01  2.80802012E-01
  1.13889012E-01  9.20811101E-01 -3.27447036E-03  1.00000000E+00  1.00000000E+00
  1.00000000E+00  1.00000000E+00  1.96665025E-03  1.52306019E-02  7.61269097E-02
  2.60801033E-01  6.16462078E-01  2.21006028E-01  1.14660081E-01  9.19999648E-01
 -3.03068213E-03  1.00000000E+00  1.00000000E+00  1.00000000E+00  1.00000000E+00
  2.54938145E-02  1.90373109E-01  8.52161486E-01  1.00000000E+00  1.00000000E+00
  1.00000000E+00  1.00000000E+00  2.54938145E-02  1.90373109E-01  8.52161486E-01
  1.00000000E+00  1.00000000E+00  1.00000000E+00  1.00000000E+00  2.54938145E-02
  1.90373109E-01  8.52161486E-01  1.00000000E+00  1.00000000E+00  1.00000000E+00
  1.00000000E+00
P(S=P) Contraction coefficients            R   N=         186
  0.00000000E+00  0.00000000E+00  0.00000000E+00  0.00000000E+00  0.00000000E+00
  0.00000000E+00  4.02486927E-02  2.37593957E-01  8.15853851E-01  1.00000000E+00
  1.00000000E+00  1.00000000E+00  0.00000000E+00  0.00000000E+00  0.00000000E+00
  0.00000000E+00  0.00000000E+00  0.00000000E+00  0.00000000E+00  4.02486927E-02
  2.37593957E-01  8.15853851E-01  1.00000000E+00  1.00000000E+00  1.00000000E+00
  0.00000000E+00  0.00000000E+00  0.00000000E+00  0.00000000E+00  0.00000000E+00
  0.00000000E+00  0.00000000E+00  4.02486927E-02  2.37593957E-01  8.15853851E-01
  1.00000000E+00  1.00000000E+00  1.00000000E+00  0.00000000E+00  0.00000000E+00
  0.00000000E+00  0.00000000E+00  0.00000000E+00  0.00000000E+00  0.00000000E+00
  4.02486927E-02  2.37593957E-01  8.15853851E-01  1.00000000E+00  1.00000000E+00
  1.00000000E+00  0.00000000E+00  0.00000000E+00  0.00000000E+00  0.00000000E+00
  0.00000000E+00  0.00000000E+00  0.00000000E+00  4.02486927E-02  2.37593957E-01
  8.15853851E-01  1.00000000E+00  1.00000000E+00  1.00000000E+00  0.00000000E+00
  0.00000000E+00  0.00000000E+00  0.00000000E+00  0.00000000E+00  0.00000000E+00
  0.00000000E+00  4.02486927E-02  2.37593957E-01  8.15853851E-01  1.00000000E+00
  1.00000000E+00  1.00000000E+00  0.00000000E+00  0.00000000E+00  0.00000000E+00
  0.00000000E+00  0.00000000E+00  0.00000000E+00  0.00000000E+00  0.00000000E+00
  0.00000000E+00  0.00000000E+00  0.00000000E+00  0.00000000E+00  0.00000000E+00
  0.00000000E+00  0.00000000E+00  0.00000000E+00  0.00000000E+00  0.00000000E+00
  0.00000000E+00  0.00000000E+00  0.00000000E+00  0.00000000E+00  0.00000000E+00
  0.00000000E+00  0.00000000E+00  0.00000000E+00  0.00000000E+00  0.00000000E+00
  0.00000000E+00  0.00000000E+00  0.00000000E+00  0.00000000E+00  0.00000000E+00
  0.00000000E+00  0.00000000E+00  0.00000000E+00  0.00000000E+00  0.00000000E+00
  0.00000000E+00  0.00000000E+00  0.00000000E+00  0.00000000E+00  4.02486927E-02
  2.37593957E-01  8.15853851E-01  1.00000000E+00  1.00000000E+00  1.00000000E+00
  0.00000000E+00  0.00000000E+00  0.00000000E+00  0.00000000E+00  0.00000000E+00
  0.00000000E+00  0.00000000E+00  3.65113974E-02  2.37152983E-01  8.19701941E-01
  1.00000000E+00  1.00000000E+00  1.00000000E+00  0.00000000E+00  0.00000000E+00
  0.00000000E+00  0.00000000E+00  0.00000000E+00  0.00000000E+00  0.00000000E+00
  3.65113974E-02  2.37152983E-01  8.19701941E-01  1.00000000E+00  1.00000000E+00
  1.00000000E+00  0.00000000E+00  0.00000000E+00  0.00000000E+00  0.00000000E+00
  0.00000000E+00  0.00000000E+00  0.00000000E+00  4.02486927E-02  2.37593957E-01
  8.15853851E-01  1.00000000E+00  1.00000000E+00  1.00000000E+00  0.00000000E+00
  0.00000000E+00  0.00000000E+00  0.00000000E+00  0.00000000E+00  0.00000000E+00
  0.00000000E+00  0.00000000E+00  0.00000000E+00  0.00000000E+00  0.00000000E+00
  0.00000000E+00  0.00000000E+00  0.00000000E+00  0.00000000E+00  0.00000000E+00
  0.00000000E+00  0.00000000E+00  0.00000000E+00  0.00000000E+00  0.00000000E+00
  0.00000000E+00
Coordinates of each shell                  R   N=         300
 -5.63727812E+00 -5.24151218E-01 -5.43296263E-06 -5.63727812E+00 -5.24151218E-01
 -5.43296263E-06 -5.63727812E+00 -5.24151218E-01 -5.43296263E-06 -5.63727812E+00
 -5.24151218E-01 -5.43296263E-06 -5.63727812E+00 -5.24151218E-01 -5.43296263E-06
 -5.63727812E+00 -5.24151218E-01 -5.43296263E-06 -4.01276194E+00 -2.59018134E+00
 -5.43296263E-06 -4.01276194E+00 -2.59018134E+00 -5.43296263E-06 -4.01276194E+00
 -2.59018134E+00 -5.43296263E-06 -4.01276194E+00 -2.59018134E+00 -5.43296263E-06
 -4.01276194E+00 -2.59018134E+00 -5.43296263E-06 -4.01276194E+00 -2.59018134E+00
 -5.43296263E-06 -1.41518406E+00 -2.22121246E+00 -3.54323650E-06 -1.41518406E+00
 -2.22121246E+00 -3.54323650E-06 -1.41518406E+00 -2.22121246E+00 -3.54323650E-06
 -1.41518406E+00 -2.22121246E+00 -3.54323650E-06 -1.41518406E+00 -2.22121246E+00
 -3.54323650E-06 -1.41518406E+00 -2.22121246E+00 -3.54323650E-06 -4.38386371E-01
  2.26651784E-01 -1.65351037E-06 -4.38386371E-01  2.26651784E-01 -1.65351037E-06
 -4.38386371E-01  2.26651784E-01 -1.65351037E-06 -4.38386371E-01  2.26651784E-01
 -1.65351037E-06 -4.38386371E-01  2.26651784E-01 -1.65351037E-06 -4.38386371E-01
  2.26651784E-01 -1.65351037E-06 -2.07071467E+00  2.29474548E+00 -1.65351037E-06
 -2.07071467E+00  2.29474548E+00 -1.65351037E-06 -2.07071467E+00  2.29474548E+00
 -1.65351037E-06 -2.07071467E+00  2.29474548E+00 -1.65351037E-06 -2.07071467E+00
  2.29474548E+00 -1.65351037E-06 -2.07071467E+00  2.29474548E+00 -1.65351037E-06
 -4.66483058E+00  1.91821771E+00 -1.65351037E-06 -4.66483058E+00  1.91821771E+00
 -1.65351037E-06 -4.66483058E+00  1.91821771E+00 -1.65351037E-06 -4.66483058E+00
  1.91821771E+00 -1.65351037E-06 -4.66483058E+00  1.91821771E+00 -1.65351037E-06
 -4.66483058E+00  1.91821771E+00 -1.65351037E-06 -7.66528309E+00 -8.18748063E-01
 -7.32268876E-06 -7.66528309E+00 -8.18748063E-01 -7.32268876E-06 -7.66528309E+00
 -8.18748063E-01 -7.32268876E-06 -7.66528309E+00 -8.18748063E-01 -7.32268876E-06
 -7.66528309E+00 -8.18748063E-01 -7.32268876E-06 -4.77295542E+00 -4.49239851E+00
 -7.32268876E-06 -4.77295542E+00 -4.49239851E+00 -7.32268876E-06 -4.77295542E+00
 -4.49239851E+00 -7.32268876E-06 -4.77295542E+00 -4.49239851E+00 -7.32268876E-06
 -4.77295542E+00 -4.49239851E+00 -7.32268876E-06 -1.37802993E-01 -3.81903268E+00
 -3.54323650E-06 -1.37802993E-01 -3.81903268E+00 -3.54323650E-06 -1.37802993E-01
 -3.81903268E+00 -3.54323650E-06 -1.37802993E-01 -3.81903268E+00 -3.54323650E-06
 -1.37802993E-01 -3.81903268E+00 -3.54323650E-06 -1.27308384E+00  4.18045590E+00
  2.36215767E-07 -1.27308384E+00  4.18045590E+00  2.36215767E-07 -1.27308384E+00
  4.18045590E+00  2.36215767E-07 -1.27308384E+00  4.18045590E+00  2.36215767E-07
 -1.27308384E+00  4.18045590E+00  2.36215767E-07 -5.93195610E+00  3.52767296E+00
 -1.65351037E-06 -5.93195610E+00  3.52767296E+00 -1.65351037E-06 -5.93195610E+00
  3.52767296E+00 -1.65351037E-06 -5.93195610E+00  3.52767296E+00 -1.65351037E-06
 -5.93195610E+00  3.52767296E+00 -1.65351037E-06  2.33099408E+00  7.39581873E-01
  2.12594190E-06  2.33099408E+00  7.39581873E-01  2.12594190E-06  2.33099408E+00
  7.39581873E-01  2.12594190E-06  2.33099408E+00  7.39581873E-01  2.12594190E-06
  2.33099408E+00  7.39581873E-01  2.12594190E-06  2.33099408E+00  7.39581873E-01
  2.12594190E-06  3.25281017E+00  2.82242851E+00  2.12594190E-06  3.25281017E+00
  2.82242851E+00  2.12594190E-06  3.25281017E+00  2.82242851E+00  2.12594190E-06
  3.25281017E+00  2.82242851E+00  2.12594190E-06  3.25281017E+00  2.82242851E+00
  2.12594190E-06  3.25281017E+00  2.82242851E+00  2.12594190E-06  3.71402215E+00
 -1.38297939E+00  4.01566803E-06  3.71402215E+00 -1.38297939E+00  4.01566803E-06
  3.71402215E+00 -1.38297939E+00  4.01566803E-06  3.71402215E+00 -1.38297939E+00
  4.01566803E-06  3.71402215E+00 -1.38297939E+00  4.01566803E-06  3.71402215E+00
 -1.38297939E+00  4.01566803E-06  6.38906746E+00 -1.03787965E+00  7.79512030E-06
  6.38906746E+00 -1.03787965E+00  7.79512030E-06  6.38906746E+00 -1.03787965E+00
  7.79512030E-06  6.38906746E+00 -1.03787965E+00  7.79512030E-06  6.38906746E+00
 -1.03787965E+00  7.79512030E-06  6.38906746E+00 -1.03787965E+00  7.79512030E-06
  7.19377510E+00 -2.92956548E+00  1.53540248E-05  7.19377510E+00 -2.92956548E+00
  1.53540248E-05  7.19377510E+00 -2.92956548E+00  1.53540248E-05  7.19377510E+00
 -2.92956548E+00  1.53540248E-05  7.19377510E+00 -2.92956548E+00  1.53540248E-05
  6.98360938E+00  6.89230386E-04 -1.67936158E+00  6.98360938E+00  6.89230386E-04
 -1.67936158E+00  6.98360938E+00  6.89230386E-04 -1.67936158E+00  6.98360938E+00
  6.89230386E-04 -1.67936158E+00  6.98360938E+00  6.89230386E-04 -1.67936158E+00
  6.98360371E+00  7.00568743E-04  1.67937339E+00  6.98360371E+00  7.00568743E-04
  1.67937339E+00  6.98360371E+00  7.00568743E-04  1.67937339E+00  6.98360371E+00
  7.00568743E-04  1.67937339E+00  6.98360371E+00  7.00568743E-04  1.67937339E+00
Constraint Structure                       R   N=          54
 -5.63727812E+00 -5.24151218E-01 -5.43296263E-06 -4.01276194E+00 -2.59018134E+00
 -5.43296263E-06 -1.41518406E+00 -2.22121246E+00 -3.54323650E-06 -4.38386371E-01
  2.26651784E-01 -1.65351037E-06 -2.07071467E+00  2.29474548E+00 -1.65351037E-06
 -4.66483058E+00  1.91821771E+00 -1.65351037E-06 -7.66528309E+00 -8.18748063E-01
 -7.32268876E-06 -4.77295542E+00 -4.49239851E+00 -7.32268876E-06 -1.37802993E-01
 -3.81903268E+00 -3.54323650E-06 -1.27308384E+00  4.18045590E+00  2.36215767E-07
 -5.93195610E+00  3.52767296E+00 -1.65351037E-06  2.33099408E+00  7.39581873E-01
  2.12594190E-06  3.25281017E+00  2.82242851E+00  2.12594190E-06  3.71402215E+00
 -1.38297939E+00  4.01566803E-06  6.38906746E+00 -1.03787965E+00  7.79512030E-06
  7.19377510E+00 -2.92956548E+00  1.53540248E-05  6.98360938E+00  6.89230386E-04
 -1.67936158E+00  6.98360371E+00  7.00568743E-04  1.67937339E+00
Num ILSW                                   I              100
ILSW                                       I   N=         100
           0           0           0           0           2           0
           0           0           0           0        4639          -1
           0           0           0           0           2           0
           0           0           1           0           1           0
           1           0           0           0           0           0
           0           0      100000           0          -1           0
           0           0           0           0           0           0
           0           0           0           1           0           0
           0           0           1           0           0           0
           0           0         121          41           0           0
           0           0          58           0           0           0
           0           0           0           0           0           0
           0           0           0           0           0           0
           0           0           0           0           0           0
           0           0           0           0           0           0
           0           0           0           0           0           0
           0           0           0           0
Num RLSW                                   I               41
RLSW                                       R   N=          41
  1.00000000E+00  1.00000000E+00  1.00000000E+00  1.00000000E+00  1.00000000E+00
  0.00000000E+00  2.00000000E-01  2.22036000E-01  0.00000000E+00  7.77964000E-01
  0.00000000E+00  2.00000000E-01  0.00000000E+00  0.00000000E+00  1.00000000E+00
  0.00000000E+00  0.00000000E+00  1.00000000E+00  0.00000000E+00  0.00000000E+00
  0.00000000E+00  0.00000000E+00  1.00000000E+00  0.00000000E+00  0.00000000E+00
  0.00000000E+00  0.00000000E+00  1.00000000E+00  0.00000000E+00  0.00000000E+00
  0.00000000E+00  0.00000000E+00  1.00000000E+00  0.00000000E+00  0.00000000E+00
  0.00000000E+00  0.00000000E+00  0.00000000E+00  1.00000000E+00  1.00000000E+00
  0.00000000E+00
MxBond                                     I                4
NBond                                      I   N=          18
           3           3           3           3           3           3
           1           1           1           1           1           3
           1           2           4           1           1           1
IBond                                      I   N=          72
           2           6           7           0           1           3
           8           0           2           4           9           0
           3           5          12           0           4           6
          10           0           1           5          11           0
           1           0           0           0           2           0
           0           0           3           0           0           0
           5           0           0           0           6           0
           0           0           4          13          14           0
          12           0           0           0          12          15
           0           0          14          16          17          18
          15           0           0           0          15           0
           0           0          15           0           0           0
RBond                                      R   N=          72
  1.50000000E+00  1.50000000E+00  1.00000000E+00  0.00000000E+00  1.50000000E+00
  1.50000000E+00  1.00000000E+00  0.00000000E+00  1.50000000E+00  1.50000000E+00