Title Card Required                                                     
Freq      RB3LYP                                                      def2TZVP            
Number of atoms                            I                7
Info1-9                                    I   N=           9
          16          14        1002           0           0         101
           6          18        -502
Full Title                                 C   N=           2
Title Card Required     
Route                                      C   N=           3
# b3lyp/def2tzvp opt freq           
Charge                                     I                0
Multiplicity                               I                1
Number of electrons                        I               70
Number of alpha electrons                  I               35
Number of beta electrons                   I               35
Number of basis functions                  I              223
Number of independent functions            I              223
Number of point charges in /Mol/           I                0
Number of translation vectors              I                0
Atomic numbers                             I   N=           7
          16           9           9           9           9           9
           9
Nuclear charges                            R   N=           7
  1.60000000E+01  9.00000000E+00  9.00000000E+00  9.00000000E+00  9.00000000E+00
  9.00000000E+00  9.00000000E+00
Current cartesian coordinates              R   N=          21
  0.00000000E+00  0.00000000E+00  0.00000000E+00  5.14167647E-30 -2.66619838E-31
  2.98311963E+00  3.54019333E-30  2.98311963E+00 -5.47990185E-16 -2.98311963E+00
 -4.52304714E-31 -5.47990185E-16  1.71570403E-30 -2.98311963E+00  1.82663395E-16
 -4.08511041E-31 -3.65326790E-16 -2.98311963E+00  2.98311963E+00  6.00667210E-31
  1.82663395E-16
Number of symbols in /Mol/                 I                0
Int Atom Types                             I   N=           7
           0           0           0           0           0           0
           0
Force Field                                I                0
Atom Types                                 C   N=           7
                                                            
                        
MM charges                                 R   N=           7
  0.00000000E+00  0.00000000E+00  0.00000000E+00  0.00000000E+00  0.00000000E+00
  0.00000000E+00  0.00000000E+00
Integer atomic weights                     I   N=           7
          32          19          19          19          19          19
          19
Real atomic weights                        R   N=           7
  3.19720718E+01  1.89984032E+01  1.89984032E+01  1.89984032E+01  1.89984032E+01
  1.89984032E+01  1.89984032E+01
Atom fragment info                         I   N=           7
           0           0           0           0           0           0
           0
Atom residue num                           I   N=           7
           0           0           0           0           0           0
           0
Nuclear spins                              I   N=           7
           0           1           1           1           1           1
           1
Nuclear ZEff                               R   N=           7
 -1.36000000E+01 -6.75000000E+00 -6.75000000E+00 -6.75000000E+00 -6.75000000E+00
 -6.75000000E+00 -6.75000000E+00
Nuclear ZNuc                               R   N=           7
  1.60000000E+01  9.00000000E+00  9.00000000E+00  9.00000000E+00  9.00000000E+00
  9.00000000E+00  9.00000000E+00
Nuclear QMom                               R   N=           7
  0.00000000E+00  0.00000000E+00  0.00000000E+00  0.00000000E+00  0.00000000E+00
  0.00000000E+00  0.00000000E+00
Nuclear GFac                               R   N=           7
  0.00000000E+00  2.62886700E+00  2.62886700E+00  2.62886700E+00  2.62886700E+00
  2.62886700E+00  2.62886700E+00
MicOpt                                     I   N=           7
          -1          -1          -1          -1          -1          -1
          -1
Number of residues                         I                0
Number of secondary structures             I                0
Redundant internal dimensions              I   N=           4
          32           6          18           8
Redundant internal coordinate indices      I   N=         128
           1           2           0           0           1           3
           0           0           1           4           0           0
           1           5           0           0           1           6
           0           0           1           7           0           0
           2           1           3           0           2           1
           4           0           2           1           5           0
           2           1           7           0           3           1
           4           0           3           1           6           0
           3           1           7           0           4           1
           5           0           4           1           6           0
           5           1           6           0           5           1
           7           0           6           1           7           0
           2           1           6         -31           3           1
           5         -21           4           1           7         -21
           2           1           6         -32           3           1
           5         -22           4           1           7         -22
           2           1           4           3           2           1
           7           3           2           1           5           4
           2           1           7           5           3           1
           6           4           3           1           7           6
           4           1           6           5           5           1
           7           6
Redundant internal coordinates             R   N=          32
  2.98311963E+00  2.98311963E+00  2.98311963E+00  2.98311963E+00  2.98311963E+00
  2.98311963E+00  1.57079633E+00  1.57079633E+00  1.57079633E+00  1.57079633E+00
  1.57079633E+00  1.57079633E+00  1.57079633E+00  1.57079633E+00  1.57079633E+00
  1.57079633E+00  1.57079633E+00  1.57079633E+00  3.14159265E+00  3.14159265E+00
  3.14159265E+00  3.14159265E+00  3.14159265E+00  3.14159265E+00  1.57079633E+00
 -1.57079633E+00  1.57079633E+00  1.57079633E+00 -1.57079633E+00 -1.57079633E+00
 -1.57079633E+00  1.57079633E+00
ZRed-IntVec                                I   N=          32
           0           0           0           0           0           0
           0           0           0           0           0           0
           0           0           0           0           0           0
           0           0           0           0           0           0
           0           0           0           0           0           0
           0           0
ZRed-FPVec                                 R   N=          32
  0.00000000E+00  0.00000000E+00  0.00000000E+00  0.00000000E+00  0.00000000E+00
  0.00000000E+00  0.00000000E+00  0.00000000E+00  0.00000000E+00  0.00000000E+00
  0.00000000E+00  0.00000000E+00  0.00000000E+00  0.00000000E+00  0.00000000E+00
  0.00000000E+00  0.00000000E+00  0.00000000E+00  0.00000000E+00  0.00000000E+00
  0.00000000E+00  0.00000000E+00  0.00000000E+00  0.00000000E+00  0.00000000E+00
  0.00000000E+00  0.00000000E+00  0.00000000E+00  0.00000000E+00  0.00000000E+00
  0.00000000E+00  0.00000000E+00
ZRed-Constraint1                           R   N=          32
  2.98311963E+00  2.98311963E+00  2.98311963E+00  2.98311963E+00  2.98311963E+00
  2.98311963E+00  1.57079633E+00  1.57079633E+00  1.57079633E+00  1.57079633E+00
  1.57079633E+00  1.57079633E+00  1.57079633E+00  1.57079633E+00  1.57079633E+00
  1.57079633E+00  1.57079633E+00  1.57079633E+00  3.14159265E+00  3.14159265E+00
  3.14159265E+00  3.14159265E+00  3.14159265E+00  3.14159265E+00  1.57079633E+00
 -1.57079633E+00  1.57079633E+00  1.57079633E+00 -1.57079633E+00 -1.57079633E+00
 -1.57079633E+00  1.57079633E+00
ZRed-Constraint2                           R   N=          32
  3.00466454E+00  3.00466454E+00  3.00466454E+00  3.00466454E+00  3.00466454E+00
  3.00466454E+00  1.57079633E+00  1.57079633E+00  1.57079633E+00  1.57079633E+00
  1.57079633E+00  1.57079633E+00  1.57079633E+00  1.57079633E+00  1.57079633E+00
  1.57079633E+00  1.57079633E+00  1.57079633E+00  3.14159265E+00  3.14159265E+00
  3.14159265E+00  3.14159265E+00  3.14159265E+00  3.14159265E+00  1.57079633E+00
 -1.57079633E+00  1.57079633E+00  1.57079633E+00 -1.57079633E+00 -1.57079633E+00
 -1.57079633E+00  1.57079633E+00
SymInf integers                            I   N=          26
           8           8           1           1           1           1
          -1          -1          -1           1          -1          -1
          -1           1          -1          -1          -1          -1
           1           1           1          -1           1           1
           1          -1
RotTr to input orientation                 R   N=          12
 -1.00000000E+00  8.57252759E-16 -2.51052594E-15 -8.57252759E-16 -1.00000000E+00
  6.73555740E-16 -2.51052594E-15  6.73555740E-16  1.00000000E+00  0.00000000E+00
  1.27077175E-16 -3.43968827E-16
Number of contracted shells                I               79
Number of primitive shells                 I              147
Pure/Cartesian d shells                    I                0
Pure/Cartesian f shells                    I                0
Highest angular momentum                   I                3
Largest degree of contraction              I                7
Shell types                                I   N=          79
           0           0           0           0           0           1
           1           1           1           1          -2          -2
          -3           0           0           0           0           0
           1           1           1          -2          -2          -3
           0           0           0           0           0           1
           1           1          -2          -2          -3           0
           0           0           0           0           1           1
           1          -2          -2          -3           0           0
           0           0           0           1           1           1
          -2          -2          -3           0           0           0
           0           0           1           1           1          -2
          -2          -3           0           0           0           0
           0           1           1           1          -2          -2
          -3
Number of primitives per shell             I   N=          79
           7           3           2           1           1           5
           1           1           1           1           2           1
           1           6           2           1           1           1
           4           1           1           1           1           1
           6           2           1           1           1           4
           1           1           1           1           1           6
           2           1           1           1           4           1
           1           1           1           1           6           2
           1           1           1           4           1           1
           1           1           1           6           2           1
           1           1           4           1           1           1
           1           1           6           2           1           1
           1           4           1           1           1           1
           1
Shell to atom map                          I   N=          79
           1           1           1           1           1           1
           1           1           1           1           1           1
           1           2           2           2           2           2
           2           2           2           2           2           2
           3           3           3           3           3           3
           3           3           3           3           3           4
           4           4           4           4           4           4
           4           4           4           4           5           5
           5           5           5           5           5           5
           5           5           5           6           6           6
           6           6           6           6           6           6
           6           6           7           7           7           7
           7           7           7           7           7           7
           7
Primitive exponents                        R   N=         147
  6.07009281E+04  9.10261069E+03  2.07141660E+03  5.86024768E+02  1.90553950E+02
  6.76303843E+01  2.51273069E+01  1.12574630E+02  3.47955542E+01  6.51155562E+00
  3.23990323E+00  1.54771609E+00  4.05410301E-01  1.45506511E-01  5.64367160E+02
  1.33426244E+02  4.24682712E+01  1.56165276E+01  6.10939885E+00  2.44041602E+00
  8.38822013E-01  3.12887469E-01  1.07701090E-01  3.75600000E+00  8.12000000E-01
  2.73000000E-01  5.57000000E-01  3.54791004E+04  5.31847290E+03  1.21048110E+03
  3.42855181E+02  1.12019432E+02  4.07147402E+01  1.60396781E+01  6.50381867E+00
  1.54404775E+00  6.12234529E-01  2.40279797E-01  8.02339005E+01  1.85940107E+01
  5.68679027E+00  1.95110063E+00  6.69702113E-01  2.16513004E-01  3.10700000E+00
  8.55000000E-01  1.91700000E+00  3.54791004E+04  5.31847290E+03  1.21048110E+03
  3.42855181E+02  1.12019432E+02  4.07147402E+01  1.60396781E+01  6.50381867E+00
  1.54404775E+00  6.12234529E-01  2.40279797E-01  8.02339005E+01  1.85940107E+01
  5.68679027E+00  1.95110063E+00  6.69702113E-01  2.16513004E-01  3.10700000E+00
  8.55000000E-01  1.91700000E+00  3.54791004E+04  5.31847290E+03  1.21048110E+03
  3.42855181E+02  1.12019432E+02  4.07147402E+01  1.60396781E+01  6.50381867E+00
  1.54404775E+00  6.12234529E-01  2.40279797E-01  8.02339005E+01  1.85940107E+01
  5.68679027E+00  1.95110063E+00  6.69702113E-01  2.16513004E-01  3.10700000E+00
  8.55000000E-01  1.91700000E+00  3.54791004E+04  5.31847290E+03  1.21048110E+03
  3.42855181E+02  1.12019432E+02  4.07147402E+01  1.60396781E+01  6.50381867E+00
  1.54404775E+00  6.12234529E-01  2.40279797E-01  8.02339005E+01  1.85940107E+01
  5.68679027E+00  1.95110063E+00  6.69702113E-01  2.16513004E-01  3.10700000E+00
  8.55000000E-01  1.91700000E+00  3.54791004E+04  5.31847290E+03  1.21048110E+03
  3.42855181E+02  1.12019432E+02  4.07147402E+01  1.60396781E+01  6.50381867E+00
  1.54404775E+00  6.12234529E-01  2.40279797E-01  8.02339005E+01  1.85940107E+01
  5.68679027E+00  1.95110063E+00  6.69702113E-01  2.16513004E-01  3.10700000E+00
  8.55000000E-01  1.91700000E+00  3.54791004E+04  5.31847290E+03  1.21048110E+03
  3.42855181E+02  1.12019432E+02  4.07147402E+01  1.60396781E+01  6.50381867E+00
  1.54404775E+00  6.12234529E-01  2.40279797E-01  8.02339005E+01  1.85940107E+01
  5.68679027E+00  1.95110063E+00  6.69702113E-01  2.16513004E-01  3.10700000E+00
  8.55000000E-01  1.91700000E+00
Contraction coefficients                   R   N=         147
  5.23800749E-04  4.05063268E-03  2.08270042E-02  8.14968503E-02  2.37491138E-01
  4.47261715E-01  3.48919184E-01  1.00455699E-01  4.33911729E-01 -1.20843306E+00
  6.74981294E-01  3.47087958E-01  1.00000000E+00  1.00000000E+00  3.48869236E-03
  2.76851268E-02  1.26594002E-01  3.61659257E-01  6.12220344E-01  1.00000000E+00
  1.00000000E+00  1.00000000E+00  1.00000000E+00  1.82851975E-01  9.14259873E-01
  1.00000000E+00  1.00000000E+00  5.61849911E-04  4.35519738E-03  2.26182471E-02
  9.14030551E-02  2.91168707E-01  6.77727086E-01  6.32964179E-01  4.01364757E-01
  1.00000000E+00  1.00000000E+00  1.00000000E+00  1.23213451E-02  8.57133954E-02
  3.26331055E-01  6.99711146E-01  1.00000000E+00  1.00000000E+00  1.00000000E+00
  1.00000000E+00  1.00000000E+00  5.61849911E-04  4.35519738E-03  2.26182471E-02
  9.14030551E-02  2.91168707E-01  6.77727086E-01  6.32964179E-01  4.01364757E-01
  1.00000000E+00  1.00000000E+00  1.00000000E+00  1.23213451E-02  8.57133954E-02
  3.26331055E-01  6.99711146E-01  1.00000000E+00  1.00000000E+00  1.00000000E+00
  1.00000000E+00  1.00000000E+00  5.61849911E-04  4.35519738E-03  2.26182471E-02
  9.14030551E-02  2.91168707E-01  6.77727086E-01  6.32964179E-01  4.01364757E-01
  1.00000000E+00  1.00000000E+00  1.00000000E+00  1.23213451E-02  8.57133954E-02
  3.26331055E-01  6.99711146E-01  1.00000000E+00  1.00000000E+00  1.00000000E+00
  1.00000000E+00  1.00000000E+00  5.61849911E-04  4.35519738E-03  2.26182471E-02
  9.14030551E-02  2.91168707E-01  6.77727086E-01  6.32964179E-01  4.01364757E-01
  1.00000000E+00  1.00000000E+00  1.00000000E+00  1.23213451E-02  8.57133954E-02
  3.26331055E-01  6.99711146E-01  1.00000000E+00  1.00000000E+00  1.00000000E+00
  1.00000000E+00  1.00000000E+00  5.61849911E-04  4.35519738E-03  2.26182471E-02
  9.14030551E-02  2.91168707E-01  6.77727086E-01  6.32964179E-01  4.01364757E-01
  1.00000000E+00  1.00000000E+00  1.00000000E+00  1.23213451E-02  8.57133954E-02
  3.26331055E-01  6.99711146E-01  1.00000000E+00  1.00000000E+00  1.00000000E+00
  1.00000000E+00  1.00000000E+00  5.61849911E-04  4.35519738E-03  2.26182471E-02
  9.14030551E-02  2.91168707E-01  6.77727086E-01  6.32964179E-01  4.01364757E-01
  1.00000000E+00  1.00000000E+00  1.00000000E+00  1.23213451E-02  8.57133954E-02
  3.26331055E-01  6.99711146E-01  1.00000000E+00  1.00000000E+00  1.00000000E+00
  1.00000000E+00  1.00000000E+00
Coordinates of each shell                  R   N=         237
  0.00000000E+00  0.00000000E+00  0.00000000E+00  0.00000000E+00  0.00000000E+00
  0.00000000E+00  0.00000000E+00  0.00000000E+00  0.00000000E+00  0.00000000E+00
  0.00000000E+00  0.00000000E+00  0.00000000E+00  0.00000000E+00  0.00000000E+00
  0.00000000E+00  0.00000000E+00  0.00000000E+00  0.00000000E+00  0.00000000E+00
  0.00000000E+00  0.00000000E+00  0.00000000E+00  0.00000000E+00  0.00000000E+00
  0.00000000E+00  0.00000000E+00  0.00000000E+00  0.00000000E+00  0.00000000E+00
  0.00000000E+00  0.00000000E+00  0.00000000E+00  0.00000000E+00  0.00000000E+00
  0.00000000E+00  0.00000000E+00  0.00000000E+00  0.00000000E+00  3.56395466E-30
 -2.66619838E-31  2.98311963E+00  3.56395466E-30 -2.66619838E-31  2.98311963E+00
  3.56395466E-30 -2.66619838E-31  2.98311963E+00  3.56395466E-30 -2.66619838E-31
  2.98311963E+00  3.56395466E-30 -2.66619838E-31  2.98311963E+00  3.56395466E-30
 -2.66619838E-31  2.98311963E+00  3.56395466E-30 -2.66619838E-31  2.98311963E+00
  3.56395466E-30 -2.66619838E-31  2.98311963E+00  3.56395466E-30 -2.66619838E-31
  2.98311963E+00  3.56395466E-30 -2.66619838E-31  2.98311963E+00  3.56395466E-30
 -2.66619838E-31  2.98311963E+00  3.14576288E-30  2.98311963E+00 -5.47990185E-16
  3.14576288E-30  2.98311963E+00 -5.47990185E-16  3.14576288E-30  2.98311963E+00
 -5.47990185E-16  3.14576288E-30  2.98311963E+00 -5.47990185E-16  3.14576288E-30
  2.98311963E+00 -5.47990185E-16  3.14576288E-30  2.98311963E+00 -5.47990185E-16
  3.14576288E-30  2.98311963E+00 -5.47990185E-16  3.14576288E-30  2.98311963E+00
 -5.47990185E-16  3.14576288E-30  2.98311963E+00 -5.47990185E-16  3.14576288E-30
  2.98311963E+00 -5.47990185E-16  3.14576288E-30  2.98311963E+00 -5.47990185E-16
 -2.98311963E+00 -4.52304714E-31 -5.47990185E-16 -2.98311963E+00 -4.52304714E-31
 -5.47990185E-16 -2.98311963E+00 -4.52304714E-31 -5.47990185E-16 -2.98311963E+00
 -4.52304714E-31 -5.47990185E-16 -2.98311963E+00 -4.52304714E-31 -5.47990185E-16
 -2.98311963E+00 -4.52304714E-31 -5.47990185E-16 -2.98311963E+00 -4.52304714E-31
 -5.47990185E-16 -2.98311963E+00 -4.52304714E-31 -5.47990185E-16 -2.98311963E+00
 -4.52304714E-31 -5.47990185E-16 -2.98311963E+00 -4.52304714E-31 -5.47990185E-16
 -2.98311963E+00 -4.52304714E-31 -5.47990185E-16  2.11013449E-30 -2.98311963E+00
  1.82663395E-16  2.11013449E-30 -2.98311963E+00  1.82663395E-16  2.11013449E-30
 -2.98311963E+00  1.82663395E-16  2.11013449E-30 -2.98311963E+00  1.82663395E-16
  2.11013449E-30 -2.98311963E+00  1.82663395E-16  2.11013449E-30 -2.98311963E+00
  1.82663395E-16  2.11013449E-30 -2.98311963E+00  1.82663395E-16  2.11013449E-30
 -2.98311963E+00  1.82663395E-16  2.11013449E-30 -2.98311963E+00  1.82663395E-16
  2.11013449E-30 -2.98311963E+00  1.82663395E-16  2.11013449E-30 -2.98311963E+00
  1.82663395E-16  1.16921077E-30 -3.65326790E-16 -2.98311963E+00  1.16921077E-30
 -3.65326790E-16 -2.98311963E+00  1.16921077E-30 -3.65326790E-16 -2.98311963E+00
  1.16921077E-30 -3.65326790E-16 -2.98311963E+00  1.16921077E-30 -3.65326790E-16
 -2.98311963E+00  1.16921077E-30 -3.65326790E-16 -2.98311963E+00  1.16921077E-30
 -3.65326790E-16 -2.98311963E+00  1.16921077E-30 -3.65326790E-16 -2.98311963E+00
  1.16921077E-30 -3.65326790E-16 -2.98311963E+00  1.16921077E-30 -3.65326790E-16
 -2.98311963E+00  1.16921077E-30 -3.65326790E-16 -2.98311963E+00  2.98311963E+00
  2.06236758E-31  1.82663395E-16  2.98311963E+00  2.06236758E-31  1.82663395E-16
  2.98311963E+00  2.06236758E-31  1.82663395E-16  2.98311963E+00  2.06236758E-31
  1.82663395E-16  2.98311963E+00  2.06236758E-31  1.82663395E-16  2.98311963E+00
  2.06236758E-31  1.82663395E-16  2.98311963E+00  2.06236758E-31  1.82663395E-16
  2.98311963E+00  2.06236758E-31  1.82663395E-16  2.98311963E+00  2.06236758E-31
  1.82663395E-16  2.98311963E+00  2.06236758E-31  1.82663395E-16  2.98311963E+00
  2.06236758E-31  1.82663395E-16
Num ILSW                                   I              100
ILSW                                       I   N=         100
           0           0           0           0           2           0
           0           0           0           0         402          -1
           5           0           0           0           2           0
           0           0           1           0           1           0
           1           0           0           0           0           0
           0           0      100000           0          -1           0
           0           0           0           0           0           0
           0           0           0           1           0           0
           0 -2000000000           1           0           0           0
           0           0           4          52           0           0
           0           0           5           0           0           0
           0           0           0           0           0           1
           0           0           0           0           0           0
           0           0           0           0           0           0
           0           0           0           0           0           0
           0           0           0           0           0           0
           0           0           0           0
Num RLSW                                   I               52
RLSW                                       R   N=          52
  8.00000000E-01  7.20000000E-01  1.00000000E+00  8.10000000E-01  2.00000000E-01
  0.00000000E+00  0.00000000E+00  1.00000000E+00  0.00000000E+00  0.00000000E+00
  0.00000000E+00  0.00000000E+00  1.00000000E+00  0.00000000E+00  0.00000000E+00
  0.00000000E+00  0.00000000E+00  1.00000000E+00  0.00000000E+00  0.00000000E+00
  0.00000000E+00  0.00000000E+00  1.00000000E+00  0.00000000E+00  0.00000000E+00
  0.00000000E+00  0.00000000E+00  1.00000000E+00  0.00000000E+00  0.00000000E+00
  0.00000000E+00  0.00000000E+00  1.00000000E+00  0.00000000E+00  0.00000000E+00
  0.00000000E+00  0.00000000E+00  0.00000000E+00  1.00000000E+00  1.00000000E+00
  0.00000000E+00  1.00000000E+00  0.00000000E+00  0.00000000E+00  0.00000000E+00
  0.00000000E+00  0.00000000E+00  0.00000000E+00  0.00000000E+00  0.00000000E+00
  0.00000000E+00  0.00000000E+00
ECP-MxAtEC                                 I           250000
ECP-MaxLECP                                I               10
ECP-MaxAtL                                 I          2250000
ECP-MxTECP                                 I         11250000
ECP-LenNCZ                                 I                0
ECP-KFirst                                 I   N=          70
           0           0           0           0           0           0
           0           0           0           0           0           0
           0           0           0           0           0           0
           0           0           0           0           0           0
           0           0           0           0           0           0
           0           0           0           0           0           0
           0           0           0           0           0           0
           0           0           0           0           0           0
           0           0           0           0           0           0
           0           0           0           0           0           0
           0           0           0           0           0           0
           0           0           0           0
ECP-KLast                                  I   N=          70
           0           0           0           0           0           0
           0           0           0           0           0           0
           0           0           0           0           0           0
           0           0           0           0           0           0
           0           0           0           0           0           0
           0           0           0           0           0           0
           0           0           0           0           0           0
           0           0           0           0           0           0
           0           0           0           0           0           0
           0           0           0           0           0           0
           0           0           0           0           0           0
           0           0           0           0
ECP-LMax                                   I   N=           7
           0           0           0           0           0           0
           0
ECP-LPSkip                                 I   N=           7
           1           1           1           1           1           1
           1
ECP-RNFroz                                 R   N=           7
  0.00000000E+00  0.00000000E+00  0.00000000E+00  0.00000000E+00  0.00000000E+00
  0.00000000E+00  0.00000000E+00
ECP-NLP                                    I                0
ECP-CLP1                                   R      0.000000000000000E+00
ECP-CLP2                                   R      0.000000000000000E+00
ECP-ZLP                                    R      0.000000000000000E+00
MxBond                                     I                6
NBond                                      I   N=           7
           6           1           1           1           1           1
           1
IBond                                      I   N=          42
           2           3           4           5           6           7
           1           0           0           0           0           0
           1           0           0           0           0           0
           1           0           0           0           0           0
           1           0           0           0           0           0
           1           0           0           0           0           0
           1           0           0           0           0           0
RBond                                      R   N=          42
  1.00000000E+00  1.00000000E+00  1.00000000E+00  1.00000000E+00  1.00000000E+00
  1.00000000E+00  1.00000000E+00  0.00000000E+00  0.00000000E+00  0.00000000E+00
  0.00000000E+00  0.00000000E+00  1.00000000E+00  0.00000000E+00  0.00000000E+00
  0.00000000E+00  0.00000000E+00  0.00000000E+00  1.00000000E+00  0.00000000E+00
  0.00000000E+00  0.00000000E+00  0.00000000E+00  0.00000000E+00  1.00000000E+00
  0.00000000E+00  0.00000000E+00  0.00000000E+00  0.00000000E+00  0.00000000E+00
  1.00000000E+00  0.00000000E+00  0.00000000E+00  0.00000000E+00  0.00000000E+00
  0.00000000E+00  1.00000000E+00  0.00000000E+00  0.00000000E+00  0.00000000E+00
  0.00000000E+00  0.00000000E+00
Virial Ratio                               R      2.002891557488063E+00
SCF Energy                                 R     -9.974813445521125E+02
Total Energy                               R     -9.974813445521125E+02
RMS Force                                  R      2.805173454951858E-07
RMS Density                                R      8.893685993465443E-11
NImag                                      I                0
Job Status                                 I                1
Nuclear derivative order                   I                2
Thermal Energy                             R     -9.974550774866236E+02
Thermal Enthalpy                           R     -9.974541333018100E+02
Thermal Free Energy                        R     -9.974875221161087E+02
External E-field                           R   N=          35
  0.00000000E+00  0.00000000E+00  0.00000000E+00  0.00000000E+00  0.00000000E+00
  0.00000000E+00  0.00000000E+00  0.00000000E+00  0.00000000E+00  0.00000000E+00
  0.00000000E+00  0.00000000E+00  0.00000000E+00  0.00000000E+00  0.00000000E+00
  0.00000000E+00  0.00000000E+00  0.00000000E+00  0.00000000E+00  0.00000000E+00
  0.00000000E+00  0.00000000E+00  0.00000000E+00  0.00000000E+00  0.00000000E+00
  0.00000000E+00  0.00000000E+00  0.00000000E+00  0.00000000E+00  0.00000000E+00
  0.00000000E+00  0.00000000E+00  0.00000000E+00  0.00000000E+00  0.00000000E+00
IOpCl                                      I                0
IROHF                                      I                0
Alpha Orbital Energies                     R   N=         223
 -8.92829462E+01 -2.47555466E+01 -2.47555466E+01 -2.47555466E+01 -2.47555249E+01